# Region type :   patch outlet
# Faces           : 20
# Area            : 2.2500000000e-05
# Scale factor    : 1.0000000000e+00
# Time            	areaIntegrateU
0.002             	1.0030628771e-06 1.2212583444e-12 0.0000000000e+00
0.004             	1.4126535781e-06 3.2623288596e-13 0.0000000000e+00
0.006             	1.7444016797e-06 5.5367166474e-14 0.0000000000e+00
0.008             	2.0250631444e-06 1.0363459394e-15 0.0000000000e+00
0.01              	2.2630878881e-06 -9.2883645728e-15 0.0000000000e+00
0.012             	2.4671605042e-06 -8.0873942968e-15 0.0000000000e+00
0.014             	2.6429289981e-06 -5.1107727603e-15 0.0000000000e+00
0.016             	2.7945226106e-06 -2.5098932516e-15 0.0000000000e+00
0.018             	2.9252864725e-06 -1.0122237331e-15 0.0000000000e+00
0.02              	3.0380790076e-06 -3.9486498301e-16 0.0000000000e+00
0.022             	3.1353446419e-06 -5.1248326632e-17 0.0000000000e+00
0.024             	3.2191752209e-06 4.7050223228e-17 0.0000000000e+00
0.026             	3.2913981767e-06 6.2394149878e-17 0.0000000000e+00
0.028             	3.3535773303e-06 5.6239801172e-17 0.0000000000e+00
0.03              	3.4070638975e-06 -2.0038890119e-18 0.0000000000e+00
0.032             	3.4530570186e-06 1.1190420838e-17 0.0000000000e+00
0.034             	3.4926104003e-06 3.3761261642e-17 0.0000000000e+00
0.036             	3.5265917415e-06 8.9872255047e-17 0.0000000000e+00
0.038             	3.5557807353e-06 2.0815468128e-16 0.0000000000e+00
0.04              	3.5808396581e-06 4.2356397063e-16 0.0000000000e+00
0.042             	3.6023506984e-06 7.5618782917e-16 0.0000000000e+00
0.044             	3.6208159232e-06 1.3094697892e-15 0.0000000000e+00
0.046             	3.6366583729e-06 2.1749766724e-15 0.0000000000e+00
0.048             	3.6502467005e-06 3.3574176531e-15 0.0000000000e+00
0.05              	3.6618989694e-06 4.7715878885e-15 0.0000000000e+00
0.052             	3.6718884716e-06 6.0640140202e-15 0.0000000000e+00
0.054             	3.6804515121e-06 6.6231976129e-15 0.0000000000e+00
0.056             	3.6877897701e-06 5.5225364578e-15 0.0000000000e+00
0.058             	3.6940769201e-06 2.1945880925e-15 0.0000000000e+00
0.06              	3.6994633285e-06 -3.2782131677e-15 0.0000000000e+00
0.062             	3.7040769329e-06 -1.0376410992e-14 0.0000000000e+00
0.064             	3.7080277539e-06 -1.7962448749e-14 0.0000000000e+00
0.066             	3.7114112002e-06 -2.4709211337e-14 0.0000000000e+00
0.068             	3.7143084152e-06 -2.9495405241e-14 0.0000000000e+00
0.07              	3.7167885346e-06 -3.1792124759e-14 0.0000000000e+00
0.072             	3.7189112074e-06 -3.1680810049e-14 0.0000000000e+00
0.074             	3.7207275849e-06 -2.9715483384e-14 0.0000000000e+00
0.076             	3.7222829043e-06 -2.6652329469e-14 0.0000000000e+00
0.078             	3.7236142651e-06 -2.3239659065e-14 0.0000000000e+00
0.08              	3.7247538007e-06 -2.0012868737e-14 0.0000000000e+00
0.082             	3.7257290323e-06 -1.7298634095e-14 0.0000000000e+00
0.084             	3.7265635494e-06 -1.5147722723e-14 0.0000000000e+00
0.086             	3.7272775744e-06 -1.3535878086e-14 0.0000000000e+00
0.088             	3.7278883673e-06 -1.2380443354e-14 0.0000000000e+00
0.09              	3.7284109115e-06 -1.1526017855e-14 0.0000000000e+00
0.092             	3.7288585137e-06 -1.0896952278e-14 0.0000000000e+00
0.094             	3.7292417071e-06 -1.0416915231e-14 0.0000000000e+00
0.096             	3.7295697504e-06 -1.0058384811e-14 0.0000000000e+00
0.098             	3.7298505704e-06 -9.7746810230e-15 0.0000000000e+00
0.1               	3.7300909567e-06 -9.5562013394e-15 0.0000000000e+00
0.102             	3.7302967250e-06 -9.3886744002e-15 0.0000000000e+00
0.104             	3.7304728570e-06 -9.2703971558e-15 0.0000000000e+00
0.106             	3.7306236184e-06 -9.1624924590e-15 0.0000000000e+00
0.108             	3.7307526618e-06 -9.0877152994e-15 0.0000000000e+00
0.11              	3.7308631144e-06 -9.0418748631e-15 0.0000000000e+00
0.112             	3.7309576539e-06 -8.9949721587e-15 0.0000000000e+00
0.114             	3.7310385721e-06 -8.9588701004e-15 0.0000000000e+00
0.116             	3.7311078311e-06 -8.9376897501e-15 0.0000000000e+00
0.118             	3.7311671105e-06 -8.9221385269e-15 0.0000000000e+00
0.12              	3.7312178481e-06 -8.9075894313e-15 0.0000000000e+00
0.122             	3.7312612744e-06 -8.9002036030e-15 0.0000000000e+00
0.124             	3.7312984429e-06 -8.8871897014e-15 0.0000000000e+00
0.126             	3.7313302553e-06 -8.8784028523e-15 0.0000000000e+00
0.128             	3.7313574833e-06 -8.8771407764e-15 0.0000000000e+00
0.13              	3.7313807875e-06 -8.8676789467e-15 0.0000000000e+00
0.132             	3.7314007334e-06 -8.8688120275e-15 0.0000000000e+00
0.134             	3.7314178049e-06 -8.8722798280e-15 0.0000000000e+00
0.136             	3.7314324162e-06 -8.8697652464e-15 0.0000000000e+00
0.138             	3.7314449219e-06 -8.8633707232e-15 0.0000000000e+00
0.14              	3.7314556251e-06 -8.8597224934e-15 0.0000000000e+00
0.142             	3.7314647861e-06 -8.8659614944e-15 0.0000000000e+00
0.144             	3.7314726267e-06 -8.8535135718e-15 0.0000000000e+00
0.146             	3.7314793374e-06 -8.8615230948e-15 0.0000000000e+00
0.148             	3.7314850810e-06 -8.8683981419e-15 0.0000000000e+00
0.15              	3.7314899969e-06 -8.8596319672e-15 0.0000000000e+00
0.152             	3.7314942041e-06 -8.8600675646e-15 0.0000000000e+00
0.154             	3.7314978051e-06 -8.8643748255e-15 0.0000000000e+00
0.156             	3.7315008873e-06 -8.8540606827e-15 0.0000000000e+00
0.158             	3.7315035252e-06 -8.8613424229e-15 0.0000000000e+00
0.16              	3.7315057828e-06 -8.8580329760e-15 0.0000000000e+00
0.162             	3.7315077152e-06 -8.8626438664e-15 0.0000000000e+00
0.164             	3.7315093690e-06 -8.8655733057e-15 0.0000000000e+00
0.166             	3.7315107846e-06 -8.8621478439e-15 0.0000000000e+00
0.168             	3.7315119961e-06 -8.8635871626e-15 0.0000000000e+00
0.17              	3.7315130330e-06 -8.8599274118e-15 0.0000000000e+00
0.172             	3.7315139205e-06 -8.8676534293e-15 0.0000000000e+00
0.174             	3.7315146801e-06 -8.8655721007e-15 0.0000000000e+00
0.176             	3.7315153301e-06 -8.8566358665e-15 0.0000000000e+00
0.178             	3.7315158865e-06 -8.8523401609e-15 0.0000000000e+00
0.18              	3.7315163628e-06 -8.8548452205e-15 0.0000000000e+00
0.182             	3.7315167704e-06 -8.8611781150e-15 0.0000000000e+00
0.184             	3.7315171191e-06 -8.8673226683e-15 0.0000000000e+00
0.186             	3.7315174178e-06 -8.8602886510e-15 0.0000000000e+00
0.188             	3.7315176734e-06 -8.8601117857e-15 0.0000000000e+00
0.19              	3.7315178920e-06 -8.8555725868e-15 0.0000000000e+00
0.192             	3.7315180793e-06 -8.8646670223e-15 0.0000000000e+00
0.194             	3.7315182394e-06 -8.8640545584e-15 0.0000000000e+00
0.196             	3.7315183767e-06 -8.8580882867e-15 0.0000000000e+00
0.198             	3.7315184939e-06 -8.8560931961e-15 0.0000000000e+00
0.2               	3.7315185943e-06 -8.8595747390e-15 0.0000000000e+00
